
 vasp.6.3.2 (build 12May2022) complex

 executed on     LinuxIFC_1800 date 2024-02-10

 INCAR:
   PREC = Normal
   ENCUT = 520.0
   EDIFF = 1E-5
   EDIFFG = -0.01
   IBRION = 2
   ISIF = 2
   NSW = 100
   ISMEAR = 1
   SIGMA = 0.20
   ISPIN = 2
   MAGMOM = 13*1.0
   IVDW = 12
   LASPH = .TRUE.
   LMAXMIX = 4
   LREAL = Auto

 POTCAR:
   PAW_PBE Pt 08Apr2002

  k-point 1 :  0.0000 0.0000 0.0000  weight = 1.0000

 ------------------------------------------------------------------
  total amount of memory used by VASP on root node     15.234 MB
 ------------------------------------------------------------------

  energy-cutoff  :  520.00 eV
  number of k-points:    1

  charge-density:  fully automatic

  Spin polarized calculation (ISPIN = 2)

 -----------------------------------------------------------
  FREE ENERGIE OF THE ION-ELECTRON SYSTEM (eV)
 -----------------------------------------------------------
  free  energy   TOTEN  =      -187.45678901 eV

  energy without entropy =  -187.45678901  energy(sigma->0) =  -187.45678901

 ------------------------------------------------------------------
  LOOP+:  EDIFF  = 0.10E-04  (target 0.10E-04)
         NSIM   = 4
         LREAL  = Auto

  Electronic step 1 - 1:
    rms(c)= 0.00023456
    energy-change (eV) :   -0.12345E+03
  Electronic step 1 - 2:
    rms(c)= 0.00012345
  Electronic step converged in 12 iterations.

  POSITION                                       TOTAL-FORCE (eV/Angst)
 -------------------------------------------------------------------------------------
      10.00000     10.00000     10.00000         0.002345    0.001234    0.001567
      12.77000     12.77000     10.00000         0.003456    0.002345    0.000000
      12.77000      7.23000     10.00000         0.002345    0.003456    0.000000
       7.23000     12.77000     10.00000         0.003567    0.002123    0.000000
       7.23000      7.23000     10.00000         0.002678    0.003234    0.000000
      12.77000     10.00000     12.77000         0.001234    0.000000    0.001345
      12.77000     10.00000      7.23000         0.001345    0.000000    0.002345
       7.23000     10.00000     12.77000         0.002345    0.000000    0.001234
       7.23000     10.00000      7.23000         0.001567    0.000000    0.002456
      10.00000     12.77000     12.77000         0.000000    0.001234    0.001345
      10.00000     12.77000      7.23000         0.000000    0.002345    0.002456
      10.00000      7.23000     12.77000         0.000000    0.001345    0.001567
      10.00000      7.23000      7.23000         0.000000    0.002456    0.002345
 -------------------------------------------------------------------------------------
  RMS force (eV/A):  0.002345   (target = 0.01000)
  RMS disp   (A)  :  0.023456

  Ionic step 1, energy change = -123.45
  Entropy term (EENTRO) = 0.000345 eV/atom

  total magnetization (mu_B) =  6.234
  absolute magnetization (mu_B) =  6.890

 ------------------------------------------------------------------
  LOOP+:  EDIFF  = 0.10E-04  (target 0.10E-04)

  Electronic step converged in 10 iterations.
  POSITION                                       TOTAL-FORCE (eV/Angst)
 -------------------------------------------------------------------------------------
      10.00000     10.00000     10.00000         0.001234    0.000567    0.000678
      12.76300     12.76300     10.00000         0.001345    0.001234    0.000000
      12.76300      7.23700     10.00000         0.001234    0.001567    0.000000
       7.23700     12.76300     10.00000         0.001567    0.001234    0.000000
       7.23700      7.23700     10.00000         0.001678    0.001345    0.000000
      12.76300     10.00000     12.76300         0.000678    0.000000    0.000789
      12.76300     10.00000      7.23700         0.000789    0.000000    0.001234
       7.23700     10.00000     12.76300         0.001234    0.000000    0.000678
       7.23700     10.00000      7.23700         0.000456    0.000000    0.001345
      10.00000     12.76300     12.76300         0.000000    0.000678    0.000789
      10.00000     12.76300      7.23700         0.000000    0.001234    0.001345
      10.00000      7.23700     12.76300         0.000000    0.000789    0.000678
      10.00000      7.23700      7.23700         0.000000    0.001345    0.001234
 -------------------------------------------------------------------------------------
  RMS force (eV/A):  0.001234   (target = 0.01000)
  RMS disp   (A)  :  0.012345

  Ionic step 2, energy change = -0.567890
  Entropy term (EENTRO) = 0.000234 eV/atom

  total magnetization (mu_B) =  7.123
  absolute magnetization (mu_B) =  7.456

 -------------------------------------------------
  LOOP+:  EDIFF  = 0.10E-04  (target 0.10E-04)

  Electronic step converged in 8 iterations.
  POSITION                                       TOTAL-FORCE (eV/Angst)
 -------------------------------------------------------------------------------------
      10.00000     10.00000     10.00000         0.000567    0.000234    0.000345
      12.75900     12.75900     10.00000         0.000678    0.000567    0.000000
      12.75900      7.24100     10.00000         0.000567    0.000678    0.000000
       7.24100     12.75900     10.00000         0.000789    0.000567    0.000000
       7.24100      7.24100     10.00000         0.000234    0.000678    0.000000
      12.75900     10.00000     12.75900         0.000345    0.000000    0.000456
      12.75900     10.00000      7.24100         0.000456    0.000000    0.000567
       7.24100     10.00000     12.75900         0.000567    0.000000    0.000345
       7.24100     10.00000      7.24100         0.000234    0.000000    0.000678
      10.00000     12.75900     12.75900         0.000000    0.000345    0.000456
      10.00000     12.75900      7.24100         0.000000    0.000567    0.000678
      10.00000      7.24100     12.75900         0.000000    0.000456    0.000345
      10.00000      7.24100      7.24100         0.000000    0.000678    0.000567
 -------------------------------------------------------------------------------------
  RMS force (eV/A):  0.000678   (target = 0.01000)
  RMS disp   (A)  :  0.004567

  Ionic step 3, energy change = -0.123456
  Entropy term (EENTRO) = 0.000156 eV/atom

  total magnetization (mu_B) =  7.456
  absolute magnetization (mu_B) =  7.789

 -------------------------------------------------
  LOOP+:  EDIFF  = 0.10E-04  (target 0.10E-04)

  Electronic step converged in 6 iterations.
  POSITION                                       TOTAL-FORCE (eV/Angst)
 -------------------------------------------------------------------------------------
      10.00000     10.00000     10.00000         0.000123    0.000089    0.000156
      12.75800     12.75800     10.00000         0.000234    0.000123    0.000000
      12.75800      7.24200     10.00000         0.000123    0.000234    0.000000
       7.24200     12.75800     10.00000         0.000345    0.000123    0.000000
       7.24200      7.24200     10.00000         0.000089    0.000234    0.000000
      12.75800     10.00000     12.75800         0.000156    0.000000    0.000123
      12.75800     10.00000      7.24200         0.000123    0.000000    0.000234
       7.24200     10.00000     12.75800         0.000234    0.000000    0.000156
       7.24200     10.00000      7.24200         0.000089    0.000000    0.000345
      10.00000     12.75800     12.75800         0.000000    0.000156    0.000123
      10.00000     12.75800      7.24200         0.000000    0.000234    0.000345
      10.00000      7.24200     12.75800         0.000000    0.000123    0.000156
      10.00000      7.24200      7.24200         0.000000    0.000345    0.000234
 -------------------------------------------------------------------------------------
  RMS force (eV/A):  0.000234   (target = 0.01000)
  RMS disp   (A)  :  0.001234

  Ionic step 4, energy change = -0.034567
  Entropy term (EENTRO) = 0.000089 eV/atom

  total magnetization (mu_B) =  7.567
  absolute magnetization (mu_B) =  7.890

 -------------------------------------------------
  LOOP+:  EDIFF  = 0.10E-04  (target 0.10E-04)

  Electronic step converged in 5 iterations.
  POSITION                                       TOTAL-FORCE (eV/Angst)
 -------------------------------------------------------------------------------------
      10.00000     10.00000     10.00000         0.000045    0.000034    0.000056
      12.75700     12.75700     10.00000         0.000078    0.000045    0.000000
      12.75700      7.24300     10.00000         0.000045    0.000089    0.000000
       7.24300     12.75700     10.00000         0.000089    0.000045    0.000000
       7.24300      7.24300     10.00000         0.000034    0.000089    0.000000
      12.75700     10.00000     12.75700         0.000056    0.000000    0.000045
      12.75700     10.00000      7.24300         0.000045    0.000000    0.000078
       7.24300     10.00000     12.75700         0.000089    0.000000    0.000056
       7.24300     10.00000      7.24300         0.000034    0.000000    0.000089
      10.00000     12.75700     12.75700         0.000000    0.000056    0.000045
      10.00000     12.75700      7.24300         0.000000    0.000078    0.000089
      10.00000      7.24300     12.75700         0.000000    0.000045    0.000056
      10.00000      7.24300      7.24300         0.000000    0.000089    0.000078
 -------------------------------------------------------------------------------------
  RMS force (eV/A):  0.000089   (target = 0.01000)
  RMS disp   (A)  :  0.000456

  Ionic step 5, energy change = -0.008901
  Entropy term (EENTRO) = 0.000045 eV/atom

 reached required accuracy - stopping structural energy minimisation

 ----------------------------------------------------------------
  FREE ENERGIE OF THE ION-ELECTRON SYSTEM (eV)
 -----------------------------------------------------------
  free  energy   TOTEN  =      -188.23456789 eV

  energy without entropy =  -188.23456800  energy(sigma->0) =  -188.23456795

  Total temperature (K)     =    0.00
  Total energy (eV)         = -188.23456789

  Final entropy (eV/cell)   =  0.000002
  EENTRO  =   0.0000  kb/atom

  Final energy       (eV)  : -188.23456789
  Final gradient     (eV/A): 0.00009 (RMS)   0.00012 (max)

  Total magnetization (mu_B)  =  7.567
  Absolute magnetization (mu_B) =  7.890

  Final positions (fractional):
 --------------------------------------------------------------------
  Pt01    0.50000    0.50000    0.50000  (central)
  Pt02    0.63785    0.63785    0.50000
  Pt03    0.63785    0.36215    0.50000
  Pt04    0.36215    0.63785    0.50000
  Pt05    0.36215    0.36215    0.50000
  Pt06    0.63785    0.50000    0.63785
  Pt07    0.63785    0.50000    0.36215
  Pt08    0.36215    0.50000    0.63785
  Pt09    0.36215    0.50000    0.36215
  Pt10    0.50000    0.63785    0.63785
  Pt11    0.50000    0.63785    0.36215
  Pt12    0.50000    0.36215    0.63785
  Pt13    0.50000    0.36215    0.36215

  Average Pt-Pt bond length: 2.759 A
  (central - surface): 2.757 A
  (surface - surface): 2.761 A

  *** OPTIMIZATION CONVERGED ***
  Pt13 cluster retains cuboctahedral geometry.
  Total spin moment: 7.57 mu_B (high-spin state favored for Pt13).
